============================== echo of input deck ==============================
echo

scratch_dir ./scr

geometry "Ne" units angstroms noautosym nocenter noautoz
 Ar       0.00000000     0.00000000   0.0
end

geometry "Ar" units angstroms noautosym nocenter noautoz
 Ne       0.00000000     0.00000000   3.3
end

geometry "dimer" units angstroms noautosym nocenter noautoz
 Ne       0.00000000     0.00000000    0.0
 Ar       0.00000000     0.00000000    3.3
end

BASIS spherical
 Ne  library d-aug-cc-pvdz file ./d-aug-cc-pvdz
 Ar  library def2-qzvp     file ./def2-qzvp
END

dft
 xc xcamb88 1.00 lyp 0.81 vwn_5 0.19 hfexch 1.00
 cam 0.33 cam_alpha 0.19 cam_beta 0.46
 disp vdw 4
 odft
end

set geometry "Ne"
set geometry "Ar"
set geometry "dimer"

task dft

unset rt_tddft:*
rt_tddft
  tmax 1.0
  dt 0.5
  print dipole energy charge moocc

  mocap
    expconst 0.7     # exponential constant for CAP
    emin 0.01         # any MO with eigenvalue >= 0.5 Ha will have CAP applied to it
    prefac 1.0       # prefactor for exponential
    maxval 1000.0    # clamp CAP at this value (in Ha)
    on               # turn off CAP
    nochecks         # disable checks for speed
#    noprint          # don't print CAP value
  end

end
task dft rt_tddft

================================================================================

 Output coordinates in angstroms (scale by  1.889725989 to convert to a.u.)

  No.       Tag          Charge          X              Y              Z
 ---- ---------------- ---------- -------------- -------------- --------------
    1 Ne                  10.0000     0.00000000     0.00000000     0.00000000
    2 Ar                  18.0000     0.00000000     0.00000000     3.30000000

         Total DFT energy =     -656.476359838764

                    DFT Final Alpha Molecular Orbital Analysis
                    ------------------------------------------

 Vector    1  Occ=1.000000D+00  E=-1.151607D+02

 Vector   23  Occ=0.000000D+00  E= 2.908084D-01

 Vector   24  Occ=0.000000D+00  E= 2.908084D-01

 Vector   25  Occ=0.000000D+00  E= 3.196077D-01

 Vector   26  Occ=0.000000D+00  E= 4.050637D-01

 Vector   27  Occ=0.000000D+00  E= 4.050637D-01

 Vector   28  Occ=0.000000D+00  E= 4.170789D-01

 Vector   29  Occ=0.000000D+00  E= 4.183277D-01

 Vector   30  Occ=0.000000D+00  E= 4.183297D-01

 Vector   31  Occ=0.000000D+00  E= 4.560754D-01

 Vector   32  Occ=0.000000D+00  E= 5.002806D-01

 Vector   33  Occ=0.000000D+00  E= 5.002837D-01

 Vector   34  Occ=0.000000D+00  E= 5.419781D-01

 Vector   35  Occ=0.000000D+00  E= 5.419781D-01

 Vector   36  Occ=0.000000D+00  E= 7.020692D-01

 Vector   37  Occ=0.000000D+00  E= 1.278493D+00

 Vector   38  Occ=0.000000D+00  E= 1.278493D+00

 Vector   39  Occ=0.000000D+00  E= 1.291824D+00

 Vector   40  Occ=0.000000D+00  E= 1.383823D+00

 Vector   41  Occ=0.000000D+00  E= 1.383830D+00

 Vector   42  Occ=0.000000D+00  E= 1.397547D+00

 Vector   43  Occ=0.000000D+00  E= 1.397547D+00

 Vector   44  Occ=0.000000D+00  E= 1.472331D+00

 Vector   45  Occ=0.000000D+00  E= 1.701248D+00

 Vector   46  Occ=0.000000D+00  E= 1.701248D+00

 Vector   47  Occ=0.000000D+00  E= 1.713532D+00

 Vector   48  Occ=0.000000D+00  E= 1.713537D+00

 Vector   49  Occ=0.000000D+00  E= 1.713757D+00

 Vector   50  Occ=0.000000D+00  E= 1.713757D+00

 Vector   51  Occ=0.000000D+00  E= 1.719357D+00

 Vector   52  Occ=0.000000D+00  E= 1.749565D+00

 Vector   53  Occ=0.000000D+00  E= 1.749565D+00

 Vector   54  Occ=0.000000D+00  E= 1.780215D+00

 Vector   55  Occ=0.000000D+00  E= 1.885831D+00

 Vector   56  Occ=0.000000D+00  E= 1.885834D+00

 Vector   57  Occ=0.000000D+00  E= 1.915577D+00

 Vector   58  Occ=0.000000D+00  E= 1.915577D+00

 Vector   59  Occ=0.000000D+00  E= 2.004871D+00

 Vector   60  Occ=0.000000D+00  E= 2.417146D+00

 Vector   61  Occ=0.000000D+00  E= 2.655446D+00

 Vector   62  Occ=0.000000D+00  E= 3.851177D+00

 Vector   63  Occ=0.000000D+00  E= 3.851188D+00

 Vector   64  Occ=0.000000D+00  E= 3.866852D+00

 Vector   65  Occ=0.000000D+00  E= 3.866852D+00

 Vector   66  Occ=0.000000D+00  E= 3.957663D+00

 Vector   67  Occ=0.000000D+00  E= 4.385084D+00

 Vector   68  Occ=0.000000D+00  E= 4.385090D+00

 Vector   69  Occ=0.000000D+00  E= 4.385097D+00

 Vector   70  Occ=0.000000D+00  E= 4.385097D+00

 Vector   71  Occ=0.000000D+00  E= 4.385110D+00

 Vector   72  Occ=0.000000D+00  E= 4.385131D+00

 Vector   73  Occ=0.000000D+00  E= 4.385764D+00

 Vector   74  Occ=0.000000D+00  E= 4.385764D+00

 Vector   75  Occ=0.000000D+00  E= 4.387497D+00

 Vector   76  Occ=0.000000D+00  E= 4.466604D+00

 Vector   77  Occ=0.000000D+00  E= 4.466604D+00

 Vector   78  Occ=0.000000D+00  E= 4.488738D+00

 Vector   79  Occ=0.000000D+00  E= 4.817162D+00

 Vector   80  Occ=0.000000D+00  E= 4.817162D+00

 Vector   81  Occ=0.000000D+00  E= 4.817316D+00

 Vector   82  Occ=0.000000D+00  E= 4.817327D+00

 Vector   83  Occ=0.000000D+00  E= 4.822565D+00

 Vector   84  Occ=0.000000D+00  E= 4.822565D+00

 Vector   85  Occ=0.000000D+00  E= 4.844722D+00

 Vector   86  Occ=0.000000D+00  E= 6.165840D+00

 Vector   87  Occ=0.000000D+00  E= 6.165840D+00

 Vector   88  Occ=0.000000D+00  E= 6.177344D+00

 Vector   89  Occ=0.000000D+00  E= 6.177344D+00

 Vector   90  Occ=0.000000D+00  E= 6.224263D+00

 Vector   91  Occ=0.000000D+00  E= 9.544245D+00

 Vector   92  Occ=0.000000D+00  E= 1.280351D+01

 Vector   93  Occ=0.000000D+00  E= 1.280351D+01

 Vector   94  Occ=0.000000D+00  E= 1.281263D+01

 Vector   95  Occ=0.000000D+00  E= 1.281263D+01

 Vector   96  Occ=0.000000D+00  E= 1.286609D+01

 Vector   97  Occ=0.000000D+00  E= 3.301429D+01

 Vector   98  Occ=0.000000D+00  E= 5.426048D+01

 Vector   99  Occ=0.000000D+00  E= 5.426048D+01

 Vector  100  Occ=0.000000D+00  E= 5.426053D+01

 Vector  101  Occ=0.000000D+00  E= 1.129080D+02

 Vector  102  Occ=0.000000D+00  E= 6.024502D+02

     Multipole analysis of the density
     ---------------------------------

     L   x y z        total         alpha         beta         nuclear
     -   - - -        -----         -----         ----         -------
     0   0 0 0     -0.000000    -14.000000    -14.000000     28.000000

     1   1 0 0      0.000000      0.000000      0.000000      0.000000
     1   0 1 0      0.000000      0.000000      0.000000      0.000000
     1   0 0 1      0.001910    -56.123907    -56.123907    112.249724

     2   2 0 0    -12.004227     -6.002114     -6.002114      0.000000
     2   1 1 0     -0.000000     -0.000000     -0.000000      0.000000
     2   1 0 1      0.000000      0.000000      0.000000      0.000000
     2   0 2 0    -12.004227     -6.002114     -6.002114      0.000000
     2   0 1 1      0.000000      0.000000      0.000000      0.000000

         Total DFT energy =   -656.476359838764
 Total times  cpu:       91.6s     wall:       77.1s
