============================== echo of input deck ==============================
echo

 permanent_dir ./per
scratch_dir ./scr

geometry "Ne" units angstroms noautosym nocenter noautoz
 Ne       0.00000000     0.00000000   0.0
end

geometry "Ar" units angstroms noautosym nocenter noautoz
 Ar       0.00000000     0.00000000   3.3
end

geometry "dimer" units angstroms noautosym nocenter noautoz
 Ne       0.00000000     0.00000000    0.0
 Ar       0.00000000     0.00000000    3.3
end

BASIS
 * library aug-cc-pvdz
END

dft
 xc xcamb88 1.00 lyp 0.81 vwn_5 0.19 hfexch 1.00
 cam 0.33 cam_alpha 0.19 cam_beta 0.46
 disp vdw 4
 odft
end

set geometry "Ne"
set geometry "Ar"
set geometry "dimer"

task dft

unset rt_tddft:*
rt_tddft
  tmax 1.0
  dt 0.5
  print dipole energy charge moocc

#  mocap
#    expconst ZETA     # exponential constant for CAP
#    emin EZ         # any MO with eigenvalue >= 0.5 Ha will have CAP applied to it
#    prefac 1.0       # prefactor for exponential
#    maxval 1000.0    # clamp CAP at this value (in Ha)
#    on               # turn off CAP
#    nochecks         # disable checks for speed
##    noprint          # don't print CAP value
#  end

end
task dft rt_tddft

================================================================================

 Output coordinates in angstroms (scale by  1.889725989 to convert to a.u.)

  No.       Tag          Charge          X              Y              Z
 ---- ---------------- ---------- -------------- -------------- --------------
    1 Ne                  10.0000     0.00000000     0.00000000     0.00000000
    2 Ar                  18.0000     0.00000000     0.00000000     3.30000000

         Total DFT energy =     -656.458292190747

                    DFT Final Alpha Molecular Orbital Analysis
                    ------------------------------------------

 Vector    1  Occ=1.000000D+00  E=-1.151901D+02

 Vector   29  Occ=0.000000D+00  E= 8.118096D-01

 Vector   30  Occ=0.000000D+00  E= 8.118096D-01

 Vector   31  Occ=0.000000D+00  E= 8.236108D-01

 Vector   32  Occ=0.000000D+00  E= 1.391193D+00

 Vector   33  Occ=0.000000D+00  E= 1.391197D+00

 Vector   34  Occ=0.000000D+00  E= 1.393102D+00

 Vector   35  Occ=0.000000D+00  E= 1.393102D+00

 Vector   36  Occ=0.000000D+00  E= 1.408414D+00

 Vector   37  Occ=0.000000D+00  E= 1.563625D+00

 Vector   38  Occ=0.000000D+00  E= 1.563625D+00

 Vector   39  Occ=0.000000D+00  E= 1.567900D+00

 Vector   40  Occ=0.000000D+00  E= 1.567900D+00

 Vector   41  Occ=0.000000D+00  E= 1.591415D+00

 Vector   42  Occ=0.000000D+00  E= 1.674390D+00

 Vector   43  Occ=0.000000D+00  E= 1.697435D+00

 Vector   44  Occ=0.000000D+00  E= 1.697435D+00

 Vector   45  Occ=0.000000D+00  E= 1.800072D+00

 Vector   46  Occ=0.000000D+00  E= 2.510788D+00

 Vector   47  Occ=0.000000D+00  E= 5.826492D+00

 Vector   48  Occ=0.000000D+00  E= 5.931270D+00

 Vector   49  Occ=0.000000D+00  E= 5.931270D+00

 Vector   50  Occ=0.000000D+00  E= 5.932515D+00

 Vector   51  Occ=0.000000D+00  E= 5.932515D+00

 Vector   52  Occ=0.000000D+00  E= 5.981231D+00

 Vector   53  Occ=0.000000D+00  E= 7.727301D+00

 Vector   54  Occ=0.000000D+00  E= 1.769062D+01

 Vector    1  Occ=1.000000D+00  E=-1.151901D+02

 Vector    2  Occ=1.000000D+00  E=-3.108253D+01

 Vector    3  Occ=1.000000D+00  E=-1.121862D+01

 Vector    4  Occ=1.000000D+00  E=-8.769973D+00

 Vector    5  Occ=1.000000D+00  E=-8.769973D+00

 Vector    6  Occ=1.000000D+00  E=-8.769964D+00

 Vector    7  Occ=1.000000D+00  E=-1.545767D+00

 Vector    8  Occ=1.000000D+00  E=-1.051690D+00

 Vector    9  Occ=1.000000D+00  E=-6.496050D-01

 Vector   10  Occ=1.000000D+00  E=-6.491790D-01

 Vector   11  Occ=1.000000D+00  E=-6.491790D-01

 Vector   12  Occ=1.000000D+00  E=-4.953349D-01

 Vector   13  Occ=1.000000D+00  E=-4.953349D-01

 Vector   14  Occ=1.000000D+00  E=-4.950973D-01

 Vector   15  Occ=0.000000D+00  E= 7.961293D-02

 Vector   16  Occ=0.000000D+00  E= 1.079489D-01

 Vector   17  Occ=0.000000D+00  E= 1.103570D-01

 Vector   18  Occ=0.000000D+00  E= 1.103570D-01

 Vector   19  Occ=0.000000D+00  E= 2.185774D-01

 Vector   20  Occ=0.000000D+00  E= 2.378620D-01

 Vector   21  Occ=0.000000D+00  E= 2.378620D-01

 Vector   22  Occ=0.000000D+00  E= 2.860542D-01

 Vector   23  Occ=0.000000D+00  E= 4.282930D-01

 Vector   24  Occ=0.000000D+00  E= 4.282933D-01

 Vector   25  Occ=0.000000D+00  E= 4.378645D-01

 Vector   26  Occ=0.000000D+00  E= 4.378645D-01

 Vector   27  Occ=0.000000D+00  E= 5.163832D-01

 Vector   28  Occ=0.000000D+00  E= 6.452687D-01

 Vector   29  Occ=0.000000D+00  E= 8.118096D-01

 Vector   30  Occ=0.000000D+00  E= 8.118096D-01

 Vector   31  Occ=0.000000D+00  E= 8.236108D-01

 Vector   32  Occ=0.000000D+00  E= 1.391193D+00

 Vector   33  Occ=0.000000D+00  E= 1.391197D+00

 Vector   34  Occ=0.000000D+00  E= 1.393102D+00

 Vector   35  Occ=0.000000D+00  E= 1.393102D+00

 Vector   36  Occ=0.000000D+00  E= 1.408414D+00

 Vector   37  Occ=0.000000D+00  E= 1.563625D+00

 Vector   38  Occ=0.000000D+00  E= 1.563625D+00

 Vector   39  Occ=0.000000D+00  E= 1.567900D+00

 Vector   40  Occ=0.000000D+00  E= 1.567900D+00

 Vector   41  Occ=0.000000D+00  E= 1.591415D+00

 Vector   42  Occ=0.000000D+00  E= 1.674390D+00

 Vector   43  Occ=0.000000D+00  E= 1.697435D+00

 Vector   44  Occ=0.000000D+00  E= 1.697435D+00

 Vector   45  Occ=0.000000D+00  E= 1.800072D+00

 Vector   46  Occ=0.000000D+00  E= 2.510788D+00

 Vector   47  Occ=0.000000D+00  E= 5.826492D+00

 Vector   48  Occ=0.000000D+00  E= 5.931270D+00

 Vector   49  Occ=0.000000D+00  E= 5.931270D+00

 Vector   50  Occ=0.000000D+00  E= 5.932515D+00

 Vector   51  Occ=0.000000D+00  E= 5.932515D+00

 Vector   52  Occ=0.000000D+00  E= 5.981231D+00

 Vector   53  Occ=0.000000D+00  E= 7.727301D+00

 Vector   54  Occ=0.000000D+00  E= 1.769062D+01

     Multipole analysis of the density
     ---------------------------------

     L   x y z        total         alpha         beta         nuclear
     -   - - -        -----         -----         ----         -------
     0   0 0 0     -0.000000    -14.000000    -14.000000     28.000000

     1   1 0 0     -0.000000     -0.000000     -0.000000      0.000000
     1   0 1 0     -0.000000     -0.000000     -0.000000      0.000000
     1   0 0 1      0.000220    -56.124752    -56.124752    112.249724

     2   2 0 0    -12.021480     -6.010740     -6.010740      0.000000
     2   1 1 0      0.000000      0.000000      0.000000      0.000000
     2   1 0 1     -0.000000     -0.000000     -0.000000      0.000000
     2   0 2 0    -12.021480     -6.010740     -6.010740      0.000000
     2   0 1 1     -0.000000     -0.000000     -0.000000      0.000000

         Total DFT energy =   -656.458292190747
 Total times  cpu:       17.8s     wall:       12.6s
